# vtk DataFile Version 3.0
Grid2
ASCII
DATASET UNSTRUCTURED_GRID
POINTS 8973 float
0.0 0.0 0
0.0121951219512 0.0 0
0.0243902439024 0.0 0
0.0365853658537 0.0 0
0.0487804878049 0.0 0
0.0609756097561 0.0 0
0.0731707317073 0.0 0
0.0853658536585 0.0 0
0.0975609756098 0.0 0
0.109756097561 0.0 0
0.121951219512 0.0 0
0.134146341463 0.0 0
0.146341463415 0.0 0
0.158536585366 0.0 0
0.170731707317 0.0 0
0.182926829268 0.0 0
0.19512195122 0.0 0
0.207317073171 0.0 0
0.219512195122 0.0 0
0.231707317073 0.0 0
0.243902439024 0.0 0
0.256097560976 0.0 0
0.268292682927 0.0 0
0.280487804878 0.0 0
0.292682926829 0.0 0
0.30487804878 0.0 0
0.317073170732 0.0 0
0.329268292683 0.0 0
0.341463414634 0.0 0
0.353658536585 0.0 0
0.365853658537 0.0 0
0.378048780488 0.0 0
0.390243902439 0.0 0
0.40243902439 0.0 0
0.414634146341 0.0 0
0.426829268293 0.0 0
0.439024390244 0.0 0
0.451219512195 0.0 0
0.463414634146 0.0 0
0.475609756098 0.0 0
0.487804878049 0.0 0
0.5 0.0 0
0.512195121951 0.0 0
0.524390243902 0.0 0
0.536585365854 0.0 0
0.548780487805 0.0 0
0.560975609756 0.0 0
0.573170731707 0.0 0
0.585365853659 0.0 0
0.59756097561 0.0 0
0.609756097561 0.0 0
0.621951219512 0.0 0
0.634146341463 0.0 0
0.646341463415 0.0 0
0.658536585366 0.0 0
0.670731707317 0.0 0
0.682926829268 0.0 0
0.69512195122 0.0 0
0.707317073171 0.0 0
0.719512195122 0.0 0
0.731707317073 0.0 0
0.743902439024 0.0 0
0.756097560976 0.0 0
0.768292682927 0.0 0
0.780487804878 0.0 0
0.792682926829 0.0 0
0.80487804878 0.0 0
0.817073170732 0.0 0
0.829268292683 0.0 0
0.841463414634 0.0 0
0.853658536585 0.0 0
0.865853658537 0.0 0
0.878048780488 0.0 0
0.890243902439 0.0 0
0.90243902439 0.0 0
0.914634146341 0.0 0
0.926829268293 0.0 0
0.939024390244 0.0 0
0.951219512195 0.0 0
0.963414634146 0.0 0
0.975609756098 0.0 0
0.987804878049 0.0 0
1.0 0.0 0
1.0 0.0121951219512 0
1.0 0.0243902439024 0
1.0 0.0365853658537 0
1.0 0.0487804878049 0
1.0 0.0609756097561 0
1.0 0.0731707317073 0
1.0 0.0853658536585 0
1.0 0.0975609756098 0
1.0 0.109756097561 0
1.0 0.121951219512 0
1.0 0.134146341463 0
1.0 0.146341463415 0
1.0 0.158536585366 0
1.0 0.170731707317 0
1.0 0.182926829268 0
1.0 0.19512195122 0
1.0 0.207317073171 0
1.0 0.219512195122 0
1.0 0.231707317073 0
1.0 0.243902439024 0
1.0 0.256097560976 0
1.0 0.268292682927 0
1.0 0.280487804878 0
1.0 0.292682926829 0
1.0 0.30487804878 0
1.0 0.317073170732 0
1.0 0.329268292683 0
1.0 0.341463414634 0
1.0 0.353658536585 0
1.0 0.365853658537 0
1.0 0.378048780488 0
1.0 0.390243902439 0
1.0 0.40243902439 0
1.0 0.414634146341 0
1.0 0.426829268293 0
1.0 0.439024390244 0
1.0 0.451219512195 0
1.0 0.463414634146 0
1.0 0.475609756098 0
1.0 0.487804878049 0
1.0 0.5 0
1.0 0.512195121951 0
1.0 0.524390243902 0
1.0 0.536585365854 0
1.0 0.548780487805 0
1.0 0.560975609756 0
1.0 0.573170731707 0
1.0 0.585365853659 0
1.0 0.59756097561 0
1.0 0.609756097561 0
1.0 0.621951219512 0
1.0 0.634146341463 0
1.0 0.646341463415 0
1.0 0.658536585366 0
1.0 0.670731707317 0
1.0 0.682926829268 0
1.0 0.69512195122 0
1.0 0.707317073171 0
1.0 0.719512195122 0
1.0 0.731707317073 0
1.0 0.743902439024 0
1.0 0.756097560976 0
1.0 0.768292682927 0
1.0 0.780487804878 0
1.0 0.792682926829 0
1.0 0.80487804878 0
1.0 0.817073170732 0
1.0 0.829268292683 0
1.0 0.841463414634 0
1.0 0.853658536585 0
1.0 0.865853658537 0
1.0 0.878048780488 0
1.0 0.890243902439 0
1.0 0.90243902439 0
1.0 0.914634146341 0
1.0 0.926829268293 0
1.0 0.939024390244 0
1.0 0.951219512195 0
1.0 0.963414634146 0
1.0 0.975609756098 0
1.0 0.987804878049 0
1.0 1.0 0
0.987804878049 1.0 0
0.975609756098 1.0 0
0.963414634146 1.0 0
0.951219512195 1.0 0
0.939024390244 1.0 0
0.926829268293 1.0 0
0.914634146341 1.0 0
0.90243902439 1.0 0
0.890243902439 1.0 0
0.878048780488 1.0 0
0.865853658537 1.0 0
0.853658536585 1.0 0
0.841463414634 1.0 0
0.829268292683 1.0 0
0.817073170732 1.0 0
0.80487804878 1.0 0
0.792682926829 1.0 0
0.780487804878 1.0 0
0.768292682927 1.0 0
0.756097560976 1.0 0
0.743902439024 1.0 0
0.731707317073 1.0 0
0.719512195122 1.0 0
0.707317073171 1.0 0
0.69512195122 1.0 0
0.682926829268 1.0 0
0.670731707317 1.0 0
0.658536585366 1.0 0
0.646341463415 1.0 0
0.634146341463 1.0 0
0.621951219512 1.0 0
0.609756097561 1.0 0
0.59756097561 1.0 0
0.585365853659 1.0 0
0.573170731707 1.0 0
0.560975609756 1.0 0
0.548780487805 1.0 0
0.536585365854 1.0 0
0.524390243902 1.0 0
0.512195121951 1.0 0
0.5 1.0 0
0.487804878049 1.0 0
0.475609756098 1.0 0
0.463414634146 1.0 0
0.451219512195 1.0 0
0.439024390244 1.0 0
0.426829268293 1.0 0
0.414634146341 1.0 0
0.40243902439 1.0 0
0.390243902439 1.0 0
0.378048780488 1.0 0
0.365853658537 1.0 0
0.353658536585 1.0 0
0.341463414634 1.0 0
0.329268292683 1.0 0
0.317073170732 1.0 0
0.30487804878 1.0 0
0.292682926829 1.0 0
0.280487804878 1.0 0
0.268292682927 1.0 0
0.256097560976 1.0 0
0.243902439024 1.0 0
0.231707317073 1.0 0
0.219512195122 1.0 0
0.207317073171 1.0 0
0.19512195122 1.0 0
0.182926829268 1.0 0
0.170731707317 1.0 0
0.158536585366 1.0 0
0.146341463415 1.0 0
0.134146341463 1.0 0
0.121951219512 1.0 0
0.109756097561 1.0 0
0.0975609756098 1.0 0
0.0853658536585 1.0 0
0.0731707317073 1.0 0
0.0609756097561 1.0 0
0.0487804878049 1.0 0
0.0365853658537 1.0 0
0.0243902439024 1.0 0
0.0121951219512 1.0 0
0.0 1.0 0
0.0 0.987804878049 0
0.0 0.975609756098 0
0.0 0.963414634146 0
0.0 0.951219512195 0
0.0 0.939024390244 0
0.0 0.926829268293 0
0.0 0.914634146341 0
0.0 0.90243902439 0
0.0 0.890243902439 0
0.0 0.878048780488 0
0.0 0.865853658537 0
0.0 0.853658536585 0
0.0 0.841463414634 0
0.0 0.829268292683 0
0.0 0.817073170732 0
0.0 0.80487804878 0
0.0 0.792682926829 0
0.0 0.780487804878 0
0.0 0.768292682927 0
0.0 0.756097560976 0
0.0 0.743902439024 0
0.0 0.731707317073 0
0.0 0.719512195122 0
0.0 0.707317073171 0
0.0 0.69512195122 0
0.0 0.682926829268 0
0.0 0.670731707317 0
0.0 0.658536585366 0
0.0 0.646341463415 0
0.0 0.634146341463 0
0.0 0.621951219512 0
0.0 0.609756097561 0
0.0 0.59756097561 0
0.0 0.585365853659 0
0.0 0.573170731707 0
0.0 0.560975609756 0
0.0 0.548780487805 0
0.0 0.536585365854 0
0.0 0.524390243902 0
0.0 0.512195121951 0
0.0 0.5 0
0.0 0.487804878049 0
0.0 0.475609756098 0
0.0 0.463414634146 0
0.0 0.451219512195 0
0.0 0.439024390244 0
0.0 0.426829268293 0
0.0 0.414634146341 0
0.0 0.40243902439 0
0.0 0.390243902439 0
0.0 0.378048780488 0
0.0 0.365853658537 0
0.0 0.353658536585 0
0.0 0.341463414634 0
0.0 0.329268292683 0
0.0 0.317073170732 0
0.0 0.30487804878 0
0.0 0.292682926829 0
0.0 0.280487804878 0
0.0 0.268292682927 0
0.0 0.256097560976 0
0.0 0.243902439024 0
0.0 0.231707317073 0
0.0 0.219512195122 0
0.0 0.207317073171 0
0.0 0.19512195122 0
0.0 0.182926829268 0
0.0 0.170731707317 0
0.0 0.158536585366 0
0.0 0.146341463415 0
0.0 0.134146341463 0
0.0 0.121951219512 0
0.0 0.109756097561 0
0.0 0.0975609756098 0
0.0 0.0853658536585 0
0.0 0.0731707317073 0
0.0 0.0609756097561 0
0.0 0.0487804878049 0
0.0 0.0365853658537 0
0.0 0.0243902439024 0
0.0 0.0121951219512 0
0.500175846219 0.500562119527 0
0.296314374089 0.295605387276 0
0.706829298784 0.291992757205 0
0.708858136797 0.708839965755 0
0.292916213977 0.706153794008 0
0.50035584736 0.220747401509 0
0.782680707019 0.501387760742 0
0.2198889834 0.500109957665 0
0.500753711584 0.781165955601 0
0.827006308978 0.829785376662 0
0.170476840008 0.828167069533 0
0.171284195279 0.171820516213 0
0.829098536757 0.171935627803 0
0.431861276004 0.359820931852 0
0.638899514942 0.432798604831 0
0.3598349642 0.566941776647 0
0.566588272661 0.639063980671 0
0.846150647374 0.358741173413 0
0.639144160267 0.154680001902 0
0.154753791649 0.360138329685 0
0.844758517342 0.640380333832 0
0.359878865109 0.153470060426 0
0.364051020836 0.848545225614 0
0.155679613415 0.638451179038 0
0.636315024195 0.842334476951 0
0.68047523399 0.58227565458 0
0.417890506103 0.682765593892 0
0.581275271825 0.319617403039 0
0.317894080581 0.418511843963 0
0.889010694922 0.465030317569 0
0.465006515402 0.110914212838 0
0.113609632822 0.464127493916 0
0.466611232697 0.887255382668 0
0.738529585063 0.889479802493 0
0.893292348727 0.736550103343 0
0.107802196599 0.735047065866 0
0.737931526029 0.106850250037 0
0.259268770896 0.891832583113 0
0.108763085226 0.260247361299 0
0.258576487223 0.108060126014 0
0.891740947652 0.25928392439 0
0.744825692587 0.398661563962 0
0.396803392195 0.258148938841 0
0.258155443332 0.602283440292 0
0.603222522845 0.742557552102 0
0.524313018669 0.404717089166 0
0.403706279328 0.474008935388 0
0.474952798442 0.598207603437 0
0.595579444752 0.526215284934 0
0.10036919743 0.900198319981 0
0.899720806096 0.100235017136 0
0.0997475468408 0.100850424725 0
0.898847167169 0.899070481923 0
0.903539789831 0.561105523297 0
0.558149354128 0.0965480467156 0
0.0972890446157 0.559274912937 0
0.55947866825 0.900523907347 0
0.797145846268 0.737898877307 0
0.73855049966 0.20274796478 0
0.203226857178 0.736404421503 0
0.203732261132 0.265063749753 0
0.799320297694 0.279795143306 0
0.278536251241 0.799027243931 0
0.279634006515 0.201441441747 0
0.720476876775 0.799621303659 0
0.770840950763 0.589644341419 0
0.371337987275 0.758606960794 0
0.243523269155 0.368789763169 0
0.594567282895 0.228902639765 0
0.494486970195 0.301885641324 0
0.695492808898 0.497136553999 0
0.304523868898 0.503501906131 0
0.498378944136 0.694415638136 0
0.816834182022 0.915534401592 0
0.0791170304301 0.820835012712 0
0.818074710716 0.0819671007648 0
0.915121980861 0.819856007609 0
0.180878127919 0.915775418081 0
0.0856676161819 0.181785543329 0
0.181164346393 0.0845445363249 0
0.915882449476 0.179158612994 0
0.647146331173 0.648248980632 0
0.348093574401 0.646041001758 0
0.652688657146 0.352679613616 0
[...]
CELL_DATA 9910
SCALARS numerical double 1
LOOKUP_TABLE default
0.775681
-0.691836
-0.965350
-0.672455
-0.382841
0.967799
-0.836474
-1.078795
-0.762100
-0.346566
0.603143
-0.971782
-0.867371
-0.464639
0.011827
-0.448441
-0.903990
-0.657330
-0.378987
0.002361
-1.349118
0.865672
-0.656016
-0.597128
-0.359024
0.558520
-1.177926
-0.841856
-1.061061
-0.739744
-0.763365
0.960959
0.338464
-0.584332
0.473550
0.338458
0.666292
-0.299797
-1.076589
1.024248
0.670416
-0.445814
-0.952048
-0.564506
0.154543
-0.941582
-1.095914
0.368252
-0.828562
-0.533523
-0.439414
-0.467744
-1.322669
-1.199632
0.752810
-1.134280
-0.613103
-1.043579
0.479737
-0.413140
-0.925594
0.932160
-0.760242
0.161774
1.005196
-0.769846
-0.063247
-0.524122
-0.315979
0.733627
-1.017434
-0.726137
0.300604
-0.912405
-1.327991
-1.119576
-0.147815
-0.417902
-1.140817
-0.813342
-1.210982
-1.005814
-0.652285
-0.095121
-0.561939
0.757583
0.236964
-0.650976
0.022681
-0.008651
-0.750910
-0.923401
0.547745
-1.237312
0.427647
-0.246301
-0.724277
-0.378210
-0.404263
-0.858336
0.007810
-0.317093
0.230286
-0.769012
-0.495342
-1.274187
-0.898086
0.164621
-0.709025
0.318055
-1.429085
-0.384943
0.835382
0.320076
-0.093729
-1.252674
-0.684444
-0.248481
0.441676
-0.887787
-1.239296
-0.110309
0.555254
-1.008133
0.698377
-0.120130
-1.220960
-0.749076
-1.171056
-0.682345
-0.585605
-0.060854
-0.977594
-0.981535
0.993415
-1.286885
-0.666154
0.262742
-0.931054
-0.793534
-0.887359
-0.052144
-0.279992
-0.543056
0.313665
-0.838441
-1.311880
0.755966
0.089128
0.876734
-0.305365
-0.287457
-0.635543
-0.850535
-0.918391
-0.742180
0.126711
-0.433520
-0.463502
-0.445008
0.696672
-0.647867
-0.801972
-0.735178
-0.731231
-0.035456
-0.795642
-0.096989
0.391682
0.736044
-0.884116
-0.042044
-0.406203
0.015877
0.158043
-0.673707
-0.586554
-0.727180
-0.935860
-0.004639
-0.021142
-0.209459
0.526381
-0.639591
0.214311
-1.338315
-0.510732
-0.659416
-1.192889
0.969482
-0.400780
-1.057625
-0.759005
-0.731639
0.285567
-0.884649
-1.260651
-0.739494
1.053962
-0.077412
0.343085
-1.287255
0.128100
-0.471425
-0.810149
0.872194
-0.679022
-0.832904
0.235668
-0.608682
0.543533
-1.169822
-1.200506
-0.544922
-1.115129
0.825388
-1.244794
-0.287479
0.497474
-0.748352
0.256325
-0.538897
-0.671921
-0.685225
-1.346530
0.697156
0.969277
-0.062092
-0.354294
-0.722231
-0.942866
0.976257
-0.643662
-0.541051
0.244869
-1.336451
-0.440915
0.943344
-1.004803
-0.836530
-0.889433
-0.257242
-0.456656
-0.101239
-0.413148
-0.017661
0.463727
-0.904708
-0.243303
-0.797239
0.597623
-0.937610
-0.418085
0.307120
0.445191
-0.673139
-0.663015
-0.077517
-0.988753
0.321010
1.200344
-0.639077
-0.414737
-0.695731
0.946668
0.118921
-0.698186
-1.256860
-0.322702
0.429961
0.945863
-1.062131
-0.461491
-0.308264
-0.274411
-0.901793
-0.755839
-0.638317
-0.737931
-0.155419
-0.312714
0.464921
-1.195177
0.030049
-0.841084
-0.012022
0.551986
0.879666
0.269175
-0.005732
-1.050246
0.141151
-0.161264
0.271045
0.829483
-0.914880
-0.648139
-0.505387
-0.762128
-0.612070
-0.686593
-0.483546
0.937021
0.333480
-0.114248
-1.339770
-0.265819
0.693595
-0.020296
-0.867738
-0.094384
-0.063509
-1.180195
-0.045702
-1.159115
-0.348735
-0.749210
-0.362884
0.304347
-1.097768
-0.711478
-0.210860
-1.148157
-0.993256
0.917661
-0.702964
-0.871195
-0.949794
-0.587783
0.137237
-1.356838
-0.892751
-0.939376
-0.551687
-0.460749
0.217938
-1.174293
-0.289157
-1.378323
-0.426054
-0.907509
0.742105
-0.015398
-0.390642
0.232906
-0.091745
-0.692956
-0.027271
0.369749
-0.146660
-0.724195
1.007130
0.422560
0.896508
0.631930
-0.764657
0.582726
0.430567
1.195538
-0.673316
-0.784742
-0.770770
-1.244886
-0.987083
0.412276
-0.106813
0.016187
0.854274
-1.207875
-0.817389
0.405032
-0.506504
0.057241
-0.527447
0.286172
-0.491997
-0.721298
0.600432
-1.320992
-0.792562
0.562346
0.025632
-0.699024
0.720063
-1.037779
-0.763082
-0.857783
-1.349044
0.067645
-0.387906
-0.384972
-1.000744
-1.071104
0.725988
-1.281454
-0.927299
0.675984
-0.460816
0.202655
-0.749328
-0.648149
-0.879932
0.155666
-1.198517
0.059148
-0.557853
0.104659
-0.877875
-0.817716
-0.068771
-0.609653
0.449808
-0.187399
-0.474599
-0.609833
-1.017564
-1.194293
-0.354088
0.908400
0.231018
-0.413383
-0.437169
-1.034044
-0.421491
0.343945
-0.638230
0.022092
0.483902
-0.527770
-0.932850
0.984464
0.564049
-0.904526
-0.851721
-0.928053
-1.126548
-0.816086
0.506432
-0.653645
-0.560640
-1.202709
-0.608881
0.955096
0.600147
-0.859496
-0.763581
-0.608696
-0.388337
0.282304
-1.415682
-1.014739
-0.997993
0.429754
-0.962404
-0.442665
-0.836143
0.723974
-0.298055
-1.420910
0.089497
-1.248818
-0.842783
0.495346
0.500750
-0.977743
-0.652985
-0.501984
-0.051231
0.949632
-0.528310
0.944095
0.986068
-1.166111
0.166700
0.070595
-0.580559
0.007323
-1.377130
-0.864870
-0.535186
-0.866933
-0.710212
-0.827790
0.004239
-0.793855
-1.062269
-0.188371
-0.832524
-1.075983
-0.387057
0.098931
-0.499987
-1.005086
-1.359279
0.260569
-0.546446
-0.303022
-0.991989
-0.574934
-0.745297
-1.157320
-0.499646
-0.908905
0.091305
-0.674554
-0.672546
0.840871
0.238618
-1.111914
-0.609800
0.623471
-0.082077
-1.147359
1.108392
-0.858428
0.398113
-0.858044
-0.788922
0.112575
-0.036861
-0.801600
0.768206
0.700546
0.631379
-0.321267
-1.079410
-1.164037
-0.697758
-0.656488
0.353694
-0.930131
-0.919885
-0.784767
-0.511025
-0.138654
0.265761
-1.346950
-0.842553
-1.085943
0.199141
-0.589472
-0.242647
-0.391502
-0.627481
0.627069
-0.149919
-0.122431
-0.407716
0.597707
0.118722
-0.048437
-0.069050
-0.357881
-0.288379
-0.679626
-1.276392
-1.186403
-0.483392
0.482450
-1.027659
-0.669059
-0.494477
-0.646644
-0.690730
-0.732184
-0.802605
0.199267
-0.279142
0.686642
-0.919798
-0.204586
-1.218463
0.351958
-0.574007
-0.530555
0.163899
0.842180
-0.635917
-1.109664
0.909673
0.558019
0.886890
-0.093927
0.057980
0.609597
0.960262
-0.829281
-1.098905
-0.954759
-0.655477
-0.690279
0.876284
-0.938417
-0.434485
-0.434893
0.122317
-0.707355
0.820248
-0.052449
-0.196917
-0.452071
0.655716
0.234393
0.325830
-0.086410
-0.931373
-0.694188
-0.632090
0.157417
-0.456403
-0.676718
0.626364
-0.181023
-0.743186
-0.820691
-0.822340
-0.403896
-0.382816
0.692849
0.156582
-0.615662
-0.900538
-1.208934
-0.672367
-0.650375
-0.607140
0.815292
-0.391709
0.964631
-0.267177
0.699464
-0.660191
0.154245
0.611722
0.254251
0.928886
0.065072
0.068524
0.314782
-0.755868
-0.663075
-0.996727
-0.368021
-0.514733
-0.773975
0.285575
-1.038252
1.029789
0.601796
-0.284856
0.297287
-0.385900
-0.830591
-0.122235
-0.617804
-1.092331
0.931545
0.877722
-1.286550
0.628683
0.865061
-1.266698
-1.053819
0.928796
-0.700332
-0.616022
0.043382
0.595625
-0.857938
0.099132
0.654168
0.442202
0.073066
-0.586399
-0.524083
-0.606315
-0.539450
-0.804628
-0.841545
1.004129
-1.063904
0.308694
0.138929
-0.685957
0.405487
-0.171247
-0.476523
-1.141581
-0.721948
-0.440619
-0.709739
0.153220
-0.614528
-0.416922
0.573785
-0.882810
-0.618470
-0.518340
-0.071646
-0.686042
-1.011021
-0.344453
-0.966364
0.080347
-0.897672
-0.624932
0.181275
-1.039595
-0.700028
-0.185691
-0.340117
-0.607355
-0.459660
0.037524
-0.793779
0.047141
-0.227968
0.683474
0.086845
-0.819381
-0.433283
0.576845
-0.106657
-0.836479
-0.193970
0.627488
-0.130196
0.255875
-1.194320
-0.038046
-0.931700
0.249908
-0.534990
0.230957
-0.200861
0.366526
-0.604732
-0.362709
0.081983
-0.861295
1.155539
-0.368734
-0.511553
-0.587744
-0.844627
0.959703
0.284891
0.071037
0.136153
-1.212004
-0.799602
-0.224519
-0.256945
-0.806049
-0.536627
0.048729
-0.522322
-0.911349
-0.914651
-1.310704
0.395729
-0.758415
-1.224279
-0.212580
0.912041
-0.359036
0.623617
0.576254
-1.053685
-0.789953
-0.205638
-0.841995
-0.978980
-0.177522
-0.389656
-0.920255
-0.532257
-0.205062
0.814163
0.133313
-1.358989
-0.970334
-0.036040
-0.592906
-0.397054
-0.863691
-0.485080
-0.389886
-0.551658
-1.005151
0.473887
-0.533698
0.807712
0.594322
0.234401
0.809466
0.188161
0.439932
-0.893337
-0.121311
-0.492157
0.419914
-0.376751
-0.045345
-0.944853
-0.970586
-0.539311
-1.241007
-0.254947
-1.105980
0.125587
-0.480280
0.534735
-0.929893
0.490393
0.179347
-0.206201
-0.551875
-1.038739
0.050869
-0.663761
0.815763
0.986079
-0.549849
0.168856
-0.318582
0.939568
0.309851
1.075454
-0.791930
-0.379360
-0.913657
-0.555062
-0.608321
-0.667246
-0.932427
-0.666949
-0.539743
0.419127
0.059400
-0.408895
-0.792378
-0.796646
-0.562941
0.765217
0.894589
-0.388332
0.944510
-0.815620
-0.432509
-0.331717
0.356671
-0.509348
-0.185987
-0.051131
0.980423
0.311215
-0.956121
0.408677
1.021336
-0.419638
-0.793754
-0.693627
0.700343
-0.548000
0.303395
-0.919778
0.225986
0.934782
-0.440267
-0.657147
0.047576
1.096829
0.011783
0.816298
-0.370301
-0.773901
-1.194603
-0.644950
-0.557964
-0.514192
-0.512795
-0.368252
-0.666992
-0.496025
-0.444994
0.857178
-0.519553
0.132673
-1.075572
-0.760958
0.331393
0.687888
0.852256
-0.351290
-0.995422
0.796557
-0.326102
-0.057750
0.584662
-0.809355
-0.481250
-0.454959
0.811495
0.022899
-0.332535
-0.477808
0.820481
-0.622716
-0.123658
-1.069411
-0.360530
-0.951315
-0.089678
0.823669
-0.227066
-0.575380
-0.323816
-0.881019
0.180285
-0.928955
1.015072
-1.299139
-0.878355
0.016351
0.012055
0.867980
0.061290
-0.981765
-0.635153
0.058137
0.483388
-0.873686
-0.488730
-0.499320
-0.831137
0.598604
0.028128
-0.628639
0.432030
-0.835260
-0.202286
0.853019
-0.814943
-0.323213
0.935563
0.467291
-0.903948
-0.917987
-0.464405
0.224292
-0.201503
0.509016
0.425658
-0.634322
-0.756942
0.558713
0.009247
-0.759073
-0.496478
-0.371846
-0.374302
-0.788172
-0.100729
0.402676
-0.831062
0.502444
-0.268013
-0.050277
0.031439
-0.539852
0.434195
0.777528
-1.320533
-0.569655
-1.137589
0.784684
-0.247945
-0.900254
0.094071
-0.795943
-0.473926
0.281903
-0.039170
-1.348896
-0.569497
0.135757
-0.120167
-1.008215
0.270916
0.171303
-0.627092
0.233840
-0.861551
-0.631509
-0.622873
-0.458868
0.457031
-0.909422
-0.800676
-0.510370
0.965851
-0.847049
-0.911626
-0.914467
-0.424672
-1.068519
-0.526234
-0.660127
0.768635
0.069747
0.072315
-0.227810
-0.482257
-0.825476
0.298064
-0.518414
-0.625564
0.770155
-0.144367
-0.181578
0.314561
-0.880876
-0.367934
-0.514508
0.920585
0.395279
0.116438
-0.981572
-0.255896
0.082447
-0.498481
-1.073677
-1.085642
-0.255655
-1.291282
-0.202900
-0.982381
-0.777510
-0.074783
-1.006354
-0.683258
-1.111659
-1.070679
0.814243
-0.050253
-0.325510
-0.794498
-0.952600
-0.956283
0.619972
-0.228823
-1.117905
0.956098
-0.687717
-0.382363
-0.723613
0.881204
-0.406449
-0.622247
-0.238879
-0.668637
0.177891
-0.013740
-0.342801
-0.887317
-1.012102
-0.670129
-0.091765
-0.656998
-1.020585
-0.680087
-0.322816
0.508095
-1.068464
-0.153469
-0.834133
-0.582251
0.689402
-0.543119
-0.956847
-0.530311
-1.315926
0.613781
0.393286
0.223481
-0.429675
-1.215582
0.449497
-1.417151
0.747907
-0.688495
-0.195155
-0.829086
0.444104
-0.387468
0.229390
0.896676
-0.836676
-0.528405
-0.918071
-0.566350
-0.444483
0.018570
-0.967642
0.154143
-0.971229
0.434174
-1.324855
-0.968079
0.574220
-0.606899
-0.885245
-0.762807
0.724957
0.438357
1.003658
0.752910
-0.898734
-0.947472
-0.927325
-0.035884
-0.474681
-0.314680
-0.311369
0.391098
-0.720005
-0.378216
-0.856130
0.865414
-0.723317
-0.977084
-0.337538
0.927498
-0.692083
-0.118589
-0.339930
0.174553
0.917457
-0.936930
-0.553933
0.532926
0.513461
0.708201
0.819578
0.207798
-0.379204
-0.807457
-0.324830
-0.501685
-0.238278
-1.180434
-0.661267
1.089215
0.065736
-1.134588
-0.153595
0.059757
0.520959
-0.615556
-0.385597
0.557433
-1.172674
0.478610
0.366266
-0.996337
0.852037
-0.198335
0.827044
-0.277151
-0.687037
-0.784158
0.292562
-0.413503
0.665717
-0.782612
0.553893
-1.179340
-1.345672
0.200589
-1.217913
0.906714
0.042378
0.595178
0.178861
-0.854432
-0.316346
-0.687931
-0.832483
0.105241
-0.641310
-0.396548
-0.894152
-0.507822
-0.600521
-0.578399
0.911802
0.342945
-0.413310
-1.240403
0.474216
-0.347022
-0.322485
-0.660999
-0.219395
-0.643701
-0.456669
-1.274670
0.328694
-0.305004
-0.293916
-0.608866
-0.915025
-0.798228
-0.903260
-0.784837
-0.793419
-0.454210
0.554201
-0.526473
-0.158495
0.185287
-1.173074
0.203531
-1.365993
0.290160
-0.486880
-0.241894
-0.135775
-0.663005
0.496974
-0.739237
-0.752583
-0.100309
0.161012
-0.732302
0.705398
-0.800079
0.194421
-0.821452
0.233748
-1.309768
-0.239349
-1.041639
-0.916062
0.333106
-0.842736
-0.712993
-0.936562
-0.060813
-0.803463
0.928650
0.665604
0.825384
-0.654306
-1.015459
-0.025378
-0.483205
-0.766088
0.824963
0.072828
-0.268706
0.417018
-0.835725
-0.522202
-1.247869
0.861656
0.434901
-0.728229
-0.502890
-0.506763
0.372749
-0.661094
-0.320135
-0.520708
0.315637
0.557978
-0.840499
-0.563731
-0.198601
-0.883606
0.844667
0.640418
-0.930937
-0.933604
0.476187
-0.654220
-0.733036
-0.097156
-0.903240
0.750704
-0.541346
-0.252897
-0.734199
0.868813
-0.738969
-0.707697
-0.962048
-0.746469
-1.141174
0.110043
0.353081
-1.053636
-0.675508
0.636885
-0.277749
-0.702892
0.831329
-0.861332
-0.485636
-0.948889
-0.523173
-1.124336
0.014446
-0.607503
-0.619177
-1.058476
-0.056700
-0.972572
-0.657561
-0.853022
-0.268743
0.897444
0.005997
-0.734957
0.741168
-0.506116
-0.946511
-0.652075
0.606520
0.958435
0.393129
0.809688
-0.914317
0.670084
-0.070391
-0.691104
-0.870269
0.486906
0.694282
-0.901669
-0.247269
0.578875
0.390538
-0.481165
0.025663
-0.522162
-0.773060
-0.957358
-0.014341
-1.005322
0.403351
0.657443
0.322623
-0.659491
1.285408
-0.987667
0.045476
-1.118018
-0.529180
-0.171210
-0.435319
-0.186932
-0.624926
-0.645766
0.207937
-0.634705
-0.994943
-1.008482
-0.604723
-0.379079
-0.475232
-0.675416
0.981329
-0.582083
0.157675
-0.902924
0.668876
-0.508932
-0.957871
0.633455
0.277273
-0.618114
-0.688956
-0.268291
0.485165
-1.183357
-0.652116
-0.340858
0.138255
-0.966869
-0.842413
-0.733308
-0.984375
-0.699003
-0.674846
-0.551068
-0.695671
0.296304
0.493613
-0.009806
-0.559908
0.781343
0.412327
-0.546474
-0.859729
-0.369289
-0.492271
0.158213
-1.175538
-0.861510
-0.389056
-0.827478
-0.907289
-0.400990
-0.743721
0.259440
0.045997
-1.041796
-0.933234
0.979284
-0.836185
0.530861
0.112706
-1.052820
-0.958634
-0.707136
0.617998
-1.142486
0.516408
-0.481084
-0.410464
-0.016336
-0.686064
-0.248157
0.541615
-0.116242
-0.294839
-0.966309
-0.901693
0.282182
-0.372279
0.741711
-0.216312
-0.922561
-1.232072
-0.732417
0.920174
-0.678056
-0.731031
-0.759621
-0.605932
-0.968126
0.105263
0.772621
0.834934
-0.226524
-0.561356
-0.387826
-0.671967
0.461949
0.641097
-0.824570
-0.722405
-0.650937
0.134782
0.693618
-0.439078
-0.852303
-0.752003
-1.234919
-0.955678
-0.840580
0.957216
0.365847
-0.677213
0.403916
0.010212
0.090543
0.926100
0.632582
-0.289362
-0.940854
0.772863
-0.517811
-0.751759
-0.282153
-0.248459
-0.542506
-0.585390
0.119995
0.808543
0.541581
0.883283
-0.618031
-0.799417
0.516587
-0.815606
-0.341499
-0.389006
-0.946732
0.375239
0.075756
-0.619601
-0.390754
0.670916
-0.834520
-0.082103
-0.635574
-1.125475
-0.304978
-1.189941
-0.969526
-0.289774
-1.007965
-1.189984
-0.663728
-0.278858
-0.812781
-1.141242
-0.696326
-0.884984
0.991767
-0.942780
-1.006805
0.897394
-0.195463
0.375666
-0.482036
-1.041094
-0.699042
-1.388923
-0.203195
-1.166099
0.322658
-1.338352
0.194084
-0.783333
-0.675954
-0.474996
0.935166
0.021320
-0.048943
-1.146282
-0.428167
-0.421568
0.093140
0.853989
0.705197
-1.042241
-0.867337
0.441537
-0.244526
-0.323836
-0.985676
-0.180534
-0.967959
0.673307
-1.036581
0.163754
-0.668555
0.857731
1.007694
-0.864937
0.918200
-0.457958
-0.791824
0.955064
-0.395002
0.292887
-0.772558
0.454405
-0.134101
-0.305490
-0.870036
-0.211003
0.371750
0.833160
-0.204444
-0.616474
0.019230
-0.881167
0.701710
-0.915430
-0.543835
-0.927301
-0.318873
0.834237
-0.722537
-0.403651
0.959473
-0.007593
-0.284421
-0.518687
-0.757309
-0.559329
0.739568
-0.977488
0.252609
-0.621394
0.054651
-0.757813
0.004162
0.167413
-0.937651
0.905073
-1.155846
-0.666118
0.898932
-0.972924
0.469934
-0.646296
-0.237285
0.698767
-0.795124
0.432763
-0.660948
0.485412
-0.969715
-0.371816
-0.552857
-0.261066
-0.066731
0.468149
-1.361471
-0.971551
-1.050353
-0.192459
-0.983759
0.587496
-0.642494
0.359413
-0.291978
-0.477379
-0.521159
-0.805480
-0.696640
-0.940930
-0.157943
-0.131074
0.984946
-0.549610
-1.331341
-0.477515
-0.324615
-0.974673
-0.678082
-0.636192
-0.417682
-0.239292
0.111918
-1.323452
-0.527154
-1.004757
0.002010
-0.269195
-0.959932
-0.206927
0.778415
-1.093182
-0.932719
0.843978
-0.620023
-0.806737
0.193845
-0.013267
-0.872956
-0.660196
0.821999
-0.058686
0.648074
-0.384256
0.070509
-1.325830
0.366450
0.344821
0.194268
-1.151325
-0.314696
0.824246
-0.197913
0.804569
-0.567804
0.185122
0.693372
-0.247146
-0.665728
0.654971
-0.208186
-0.543560
-1.038788
-0.020265
-1.311610
0.781760
0.171715
-0.362614
0.627509
0.711941
-0.433034
-0.107138
0.876846
-1.368880
-0.678906
0.198863
0.262756
-1.030056
0.078445
-0.125442
-0.159906
0.523139
-0.905182
-0.732878
-0.095568
-0.007794
-0.517717
0.615335
-0.936280
-0.225982
-0.882059
-0.525308
-0.007659
0.566434
-0.820869
-0.599794
-0.597987
-0.916997
0.661989
0.953986
-0.607993
-0.600567
-0.559702
-0.665197
-0.383125
0.807210
0.775132
-0.086979
-0.998888
-0.947811
0.224756
-0.654228
-0.311786
0.003556
-0.754629
0.809945
-0.816390
-0.604127
-0.773225
-0.993379
0.939130
-0.335272
-0.712453
-0.502274
-0.272370
-0.853300
-0.092531
-1.084185
0.290093
-0.357542
-0.408673
-0.588369
-0.530790
-0.001214
-1.000384
-0.258777
0.574337
-0.118730
-0.292311
-0.593689
0.165513
0.251661
-0.450966
0.718897
-1.049834
-0.238978
-1.005539
0.022976
-1.000371
-0.415723
-0.722916
-0.682979
-0.528528
0.337590
-0.581063
-0.670697
-0.298943
-0.440515
0.497178
-0.746057
0.733475
-1.133608
-0.285969
-0.726851
1.009111
-0.524557
-0.581254
-0.648193
-0.888733
-0.298694
-0.202151
-0.280525
-0.087318
-0.642721
0.744329
-0.170850
-1.299111
-0.607759
-0.635788
-1.301715
-0.572598
-0.828674
-1.303303
-0.479237
0.984567
0.614694
-1.050012
-0.022452
-0.802734
0.819510
0.900534
-0.831840
-0.407073
-0.258557
-1.144527
-0.064446
0.806155
0.147519
-0.932240
-0.622454
-0.773368
1.012170
-0.734243
-0.701186
-0.979072
-0.693090
-1.064495
-0.034012
-0.937131
-0.654776
-0.156124
-0.695441
-0.848741
0.332997
-0.609647
-0.403011
0.245230
0.261158
0.838773
-0.713678
0.457375
-0.139633
-0.650394
-0.532878
-0.874327
-0.427962
-1.036155
-0.367998
-0.090051
-0.700254
0.601139
0.119350
-0.814223
-0.636708
0.389626
0.292274
0.597690
-1.074656
-1.233250
0.865256
-0.140157
-0.592179
-1.078144
0.608547
-1.208636
-0.314980
-0.673331
1.094710
-0.706221
-0.151222
-0.345588
0.078119
-0.729996
-0.701823
-1.063151
0.884863
-0.022885
0.441704
0.311227
-0.543273
-0.314172
-0.148542
-0.261196
0.375530
-0.387042
0.042952
-0.395756
0.067807
-0.935348
-0.813043
0.985514
-0.055797
-0.606685
-0.100553
-0.857282
0.539735
0.291501
-0.348978
0.125900
-0.905658
-1.241102
-0.831103
-0.992545
-0.357436
-0.168412
-1.397522
0.619746
-0.914403
-0.569932
-0.692353
-1.080171
-0.385664
0.892370
-0.444203
-0.046988
-0.842021
-0.364057
-0.061468
-0.801528
-0.855487
-0.039290
0.653408
-0.295097
0.276491
-0.323842
0.791174
-0.170653
0.438535
0.946516
-0.804844
-0.773930
0.836288
0.871833
-0.082436
-0.924141
0.997889
-0.485950
0.467139
-1.057983
-0.087159
0.499897
0.725855
-0.737824
-0.427104
-1.199296
0.994973
-1.037825
0.652549
-0.339781
-1.227637
0.309941
0.648676
-0.082691
-0.545851
-0.695006
0.405631
0.389159
-0.696977
0.158155
-0.893378
0.742370
0.209229
-0.791650
-0.775242
-1.033281
-0.416581
-0.676849
-0.958903
0.334973
-0.016911
-1.159027
0.609039
-0.161575
-0.914974
0.751547
-0.893780
0.070033
-0.000885
0.868435
-0.801599
0.963461
-1.133135
-0.955796
-1.332172
-0.290828
-1.017476
-0.577236
-1.322972
-1.374987
0.051181
0.785519
-0.780066
-0.647833
-0.970863
-0.556405
-0.668698
-0.427541
-0.856839
-0.146809
0.817689
-0.598195
0.045863
0.625111
0.646721
-0.528340
-0.171943
-0.811291
0.862017
-0.581794
-0.686946
0.757523
-0.092304
-0.635764
0.603344
-0.481602
0.046249
-0.408315
-0.198213
-0.877662
0.489684
-0.677813
-0.020003
-0.959744
-0.011557
0.201885
-0.648535
-0.860114
-0.471539
0.620402
-0.825992
-0.530931
0.232006
0.139330
0.796490
-0.652074
-0.244800
-0.602319
0.870566
-0.364443
0.927688
0.657695
-0.872426
0.760290
0.761587
-0.868838
0.022155
-0.564980
-0.809240
-1.349499
-1.130231